ITEM: TIMESTEP
        10
ITEM: NUMBER OF ATOMS
      3804
ITEM: BOX BOUNDS pp pp pp
     0.00000000     34.02324000
     0.00000000     34.02324000
     0.00000000     34.02324000
ITEM: ATOMS id type x y z
     1    1    1.2451233   19.2726548   18.2163933
     2    2    1.1645865   19.2669479   18.0899763
     3    3    1.3078032   19.8496657   17.4552354
     4    3    0.5533089   18.6510633   17.9900116
     5    1    4.3490496   17.4739006   16.2408638
     6    2    4.4259581   17.5260122   16.1230951
     7    3    5.2937887   17.4315515   16.0928556
     8    3    4.0051017   17.9233328   15.4688907
     9    1    3.9514486   21.4311615   17.3559624
    10    2    4.0658239   21.4054266   17.4495360
    11    3    4.7964564   21.8798377   17.3856816
    12    3    3.9999137   20.7814505   18.0572175
    13    1   17.2451544   19.2988542    1.7362115
    14    2   17.3884487   19.3116346    1.6937448
    15    3   17.9693923   18.7042687    1.9316065
    16    3   17.6402977   19.9932772    1.2090770
    17    1    8.7237302    8.3559179    5.0343443
    18    2    8.8053611    8.2302694    5.0413324
    19    3    8.4078432    7.4553816    5.1083810
    20    3    9.6772987    8.2749173    5.0148971
    21    1   22.6407278   25.3873001   12.2073706
    22    2   22.7484940   25.2898664   12.1700464
    23    3   22.5361498   24.4829983   11.9115104
    24    3   23.5871503   25.5304722   12.2116628
    25    1   16.7497377   15.8297068   35.4072131
    26    2   16.6276975   15.9060059   35.3649684
    27    3   16.1933565   15.6695533   34.6449649
    28    3   16.3527694   16.5858915   35.8394552
    29    1   -1.5265180   15.4797374   15.7701414
    30    2   -1.4756643   15.5768283   15.6677341
    31    3   -1.3090178   15.3051635   14.8544727
    32    3   -1.3467606   16.4127627   15.8858285
    33    1   15.3448632   19.4105261   -0.3105441
    34    2   15.3517503   19.2963436   -0.2135136
    35    3   15.1581509   18.4868613   -0.4785126
    36    3   15.5853758   19.4422245    0.6154047
    37    1   33.2321585   17.7359732    4.6646664
    38    2   33.2662490   17.7460903    4.8103904
    39    3   32.8010329   18.2704935    5.3314876
    40    3   33.9295917   17.2804856    5.1362067
    41    1   13.0016439   16.9135012   29.8811937
    42    2   12.9759769   17.0398543   29.8045379
    43    3   12.2552018   17.1150530   29.3168954
    44    3   13.5475819   17.6989900   29.8466750
    45    1   23.7433794   11.1165370    6.7574070
    46    2   23.7853018   11.2456952    6.8211304
    47    3   23.2145699   11.7002205    7.3013791
    48    3   24.5996766   11.5418074    6.7112266
    49    1   24.3814344   27.3064089    9.9992881
    50    2   24.3825396   27.1649490    9.9494096
    51    3   24.3275216   26.5025137   10.5160837
    52    3   24.4439810   27.0052525    9.0928528
    53    1   22.3533278   26.2496729   24.2450764
    54    2   22.2594534   26.2169953   24.1327386
    55    3   22.5291588   25.7136839   23.4717518
    56    3   21.4441719   26.5303927   24.1408447
    57    1    8.2294245   26.0609866   29.5823513
    58    2    8.2345749   25.9117402   29.5964585
    59    3    8.5645961   25.4240640   28.9513036
    60    3    7.9344863   25.5320319   30.3236008
    61    1    0.8715147   12.2620038    1.1509653
    62    2    0.8577445   12.1693282    1.0338260
    63    3    0.7587067   11.3115921    1.1659137
    64    3    0.8767537   12.4884556    0.2209521
    65    1   16.6840130   30.1205044   31.9841450
    66    2   16.5863138   30.0066901   31.9852209
    67    3   15.7519376   30.1464061   31.7678211
    68    3   16.8528851   29.2055119   32.2088741
    69    1    6.2370777    5.9971696   21.7100704
    70    2    6.1474521    5.9324605   21.6086801
    71    3    5.4964532    5.4125525   21.8710978
    72    3    6.2775685    6.0762943   20.7570058
    73    1    7.1896429    8.3462849   12.1244075
    74    2    7.0455347    8.3094325   12.1050500
    75    3    6.5473233    8.7716925   11.5563533
    76    3    6.7062227    7.6329946   12.5412459
    77    1   -1.2118137   18.2514822   17.3232354
    78    2   -1.3398964   18.2917151   17.3901394
    79    3   -1.7874139   17.7082160   17.8615455
    80    3   -1.6367654   19.1090385   17.3075632
    81    1   17.7354105    0.6693368   12.6482743
    82    2   17.7201403    0.5842160   12.5257130
    83    3   18.0016864    0.8783048   11.7529190
    84    3   17.3498469   -0.2045746   12.5862093
    85    1    0.6691185   30.3006084   13.8500820
    86    2    0.7428845   30.1712579   13.8681653
    87    3    1.3563407   30.1020216   14.4861012
    88    3    0.5581395   29.4887392   13.3553250
    89    1   14.4432623   14.6488020   33.1581721
    90    2   14.4154285   14.7167726   33.0273849
    91    3   13.9046083   15.4249342   33.0042169
    92    3   14.7644850   14.4036399   32.2904487
    93    1   19.9476817   14.2368840    2.2377509
    94    2   19.8565022   14.3090677    2.3324916
    95    3   19.1621794   13.8982852    2.6673653
    96    3   20.0209113   15.1393658    2.5482284
    97    1   18.9685639   17.4184078    2.0134262
    98    2   18.9974645   17.3220422    1.9021679
    99    3   19.7516192   17.3748745    1.4646449
   100    3   18.4112726   16.7091553    1.6930834
   101    1    6.5953171   22.7254048   11.5739352
   102    2    6.6632438   22.7851928   11.6935653
   103    3    6.5173700   22.4538940   12.4885049
   104    3    7.2038911   23.4639655   11.5938879
   105    1    7.5128464   27.1416952    7.7085151
   106    2    7.4856860   27.0221873    7.6220272
   107    3    8.0380938   26.8159027    6.9776212
   108    3    6.7754276   26.5339198    7.7637857
   109    1   25.0496290    7.2760647   21.0554499
   110    2   25.1555842    7.2569073   20.9510157
   111    3   25.8916832    6.8308131   21.1499349
   112    3   25.0352714    7.5716638   20.1451492
   113    1    3.9427658   26.0566841   26.8310439
   114    2    3.8238329   26.0767108   26.7418593
   115    3    3.5493994   26.8849096   26.5562040
   116    3    3.4070556   25.3849023   26.4091954
   117    1    9.3938930    9.7832614   11.8770018
   118    2    9.3616830    9.7368136   12.0159446
   119    3    9.8342445   10.0240308   12.6920799
   120    3    8.7019243    9.1796524   12.1473126
   121    1    4.5152062    7.2657087   25.7370430
   122    2    4.5529999    7.2246185   25.5978193
   123    3    5.3272661    7.4598401   25.2689582
   124    3    3.9983815    6.7505905   25.1175449
   125    1    2.6543207   -0.7998542   35.2587866
   126    2    2.6433730   -0.8020264   35.4083708
   127    3    3.3636988   -0.8741830   35.8971357
   128    3    1.8594215   -0.7424946   35.7889540
   129    1   27.6813197   25.1556042    7.1043072
   130    2   27.7157129   25.1209549    6.9624744
   131    3   28.5427132   25.1799995    6.6876086
   132    3   27.0885976   24.8605376    6.4130413
   133    1   31.4697535   19.6363010   -0.1356163
   134    2   31.6099994   19.6202216   -0.0848962
   135    3   31.8562962   18.8680938    0.2847099
   136    3   32.1787791   20.2789001   -0.1597286
   137    1   26.6590132   29.0307504   28.7647962
   138    2   26.5265344   29.0926235   28.7313136
   139    3   25.9980632   29.3642701   29.3715428
   140    3   26.2850698   29.1805690   27.8964915
   141    1   17.2580723    3.3291322   16.7572771
   142    2   17.1838824    3.2743587   16.6389736
   143    3   17.5066352    2.5916477   16.1999938
   144    3   16.4299553    3.6387393   16.3904009
   145    1   18.6959832   31.6874001   18.5438057
   146    2   18.5831139   31.7083360   18.6403572
   147    3   17.8346754   32.0649064   18.3652858
   148    3   18.6755826   31.4734405   19.4765637
   149    1   17.6193594   31.4390494    0.2237458
   150    2   17.5229596   31.4979428    0.1250613
   151    3   17.4118218   31.1199309   -0.6545042
   152    3   17.0738446   32.2182298    0.3310952
   153    1   17.0150382   -0.2401616   18.6564303
   154    2   16.9917693   -0.1368585   18.7626707
   155    3   17.2432477    0.6890627   18.6300822
   156    3   16.6050574   -0.3624065   19.5127038
   157    1   13.5660056   16.5326445   19.6086130
   158    2   13.4911657   16.6314684   19.5241570
   159    3   12.6764754   16.8607450   19.7402101
   160    3   13.8709045   16.9765335   18.8172650
   161    1   14.3799210   32.0081163   31.0534010
   162    2   14.3896455   32.1577934   31.0548833
   163    3   13.7470230   32.6328751   31.4074462
   164    3   15.0887843   32.5525999   30.7109352
   165    1   25.3124295   25.9795983   29.7808319
   166    2   25.2041496   26.0726421   29.8268571
   167    3   24.5381595   26.2634555   29.2948662
   168    3   25.2408427   26.4225775   30.6263360
   169    1   28.6029578    7.5781164   11.2177313
   170    2   28.6662451    7.5818703   11.0817878
   171    3   29.1315642    8.2792845   10.8367192
   172    3   28.5687368    6.9062732   10.5367849
   173    1    2.5227011    4.1124990   18.0045986
   174    2    2.4199945    4.2197169   17.9832521
   175    3    2.6133195    5.0513842   18.1674313
   176    3    1.6297630    4.0111751   17.6750120
   177    1   17.3629724   13.8510641    3.0612069
   178    2   17.3135720   13.9875922    3.0988854
   179    3   17.1173192   14.5674314    2.4757977
   180    3   17.2227214   14.2012223    3.9409518
   181    1    2.8834190   30.6031876   20.5073348
   182    2    2.7475201   30.6476260   20.4619838
   183    3    2.6208445   30.8828359   19.6303609
   184    3    2.0843830   30.6706821   21.0300376
   185    1   -0.5271637   14.4681784   32.9403436
   186    2   -0.5395456   14.3871664   32.8147102
   187    3   -0.2677038   14.7187247   32.0536989
   188    3   -0.8833483   13.5847857   32.8455697
   189    1   21.7543321   21.8777432    4.8356623
   190    2   21.7782412   21.8117105    4.7031179
   191    3   21.1101707   21.4577753    4.2656495
   192    3   22.5852662   21.7818789    4.3702691
   193    1   12.5716726   23.2182753    6.9360086
   194    2   12.5344925   23.0780827    6.9742667
   195    3   11.7679826   22.7455102    6.7196590
   196    3   13.0849201   22.5958891    7.4512221
   197    1    7.9417536    5.9301286    5.6194559
   198    2    7.8418761    5.9176476    5.7306706
   199    3    7.0413663    5.6098453    5.5651144
   200    3    8.0619212    6.1529136    6.5425805
   201    1    3.0074489   30.0519650   16.0564983
   202    2    3.1307837   30.1335380   16.0313119
   203    3    3.6301742   29.9649409   15.3347839
   204    3    3.3481869   30.7762180   16.5814626
   205    1   34.1639905   30.1517061   35.9544219
   206    2   34.1671988   30.0779283   35.8238595
   207    3   34.6392611   30.3898690   35.1584145
   208    3   33.7137820   29.3372084   35.7305064
   209    1   19.2304577   17.3329057   20.6448317
   210    2   19.1895675   17.1886488   20.6490691
   211    3   19.6723905   16.5865403   20.2400283
   212    3   18.4691005   16.9523704   21.0827364
   213    1   29.0091848   26.9314194   26.8683730
   214    2   28.9188426   26.9659140   26.9830395
   215    3   28.0704084   26.7615273   26.9462644
   216    3   29.2422290   27.3707760   27.6862291
   217    1   11.2190513   26.7408812   29.0614986
   218    2   11.1008338   26.8062073   29.1267451
   219    3   11.1631606   27.6264367   29.4205242
   220    3   10.3514543   26.3656377   29.2121639
   221    1    8.3623167   29.0807701   21.1059677
   222    2    8.3613059   29.2241273   21.1501005
   223    3    8.7328200   29.4495650   21.9078089
   224    3    7.9839169   29.8318479   20.6488812
   225    1   18.3622293    3.3151076    1.5934631
   226    2   18.3979221    3.1991139    1.6816191
   227    3   19.2318471    2.9511379    1.7593621
   228    3   17.7714354    2.7729614    2.1162177
   229    1   20.2522208    3.2454656   13.5204432
   230    2   20.1454113    3.1745254   13.5982841
   231    3   20.2766933    2.9778743   14.4391529
   232    3   19.3933775    2.9588883   13.2098084
   233    1   22.4246143    6.3846884   22.9378827
   234    2   22.5556632    6.3736907   22.8657353
   235    3   23.0072474    7.0952429   22.6697732
   236    3   22.8657042    5.5882223   22.6423937
   237    1    9.6217320    5.3293434   24.5519884
   238    2    9.7061090    5.3338559   24.4280523
   239    3   10.0399725    6.0935910   24.1554635
   240    3    9.8626243    4.6003465   23.9803532
   241    1   22.8689575    8.1845493   26.0433143
   242    2   22.8220778    8.1753388   25.9011261
   243    3   23.3850508    8.3098922   25.2469673
   244    3   21.9866509    7.9872568   25.7289210
   245    1   20.2525522   34.2415917   33.1698320
   246    2   20.3403599   34.3270158   33.0832726
   247    3   21.2091795   34.2578038   33.1409714
   248    3   19.9818581   34.8926933   32.5225115
   249    1   26.2664464   12.9243842   24.1714628
   250    2   26.3961478   12.9657168   24.1084615
   251    3   27.0197944   12.3712965   23.9645996
   252    3   26.5262952   13.8003533   23.8861751
   253    1   24.6673504   28.1851878   22.5530720
   254    2   24.6204488   28.0528766   22.5002139
   255    3   25.1779899   27.5299429   22.0775375
   256    3   23.7903266   27.8068486   22.6156908
   257    1    6.4233557   10.0594029    5.1736015
   258    2    6.5618012   10.0459074    5.1174703
   259    3    6.7702889   10.4475040    4.3703291
   260    3    7.1579265    9.5658779    5.5383906
   261    1   26.8684594    5.0004235    9.8339325
   262    2   26.7289703    4.9454134    9.8380160
   263    3   26.0573002    5.4408999    9.5804904
   264    3   26.5899623    4.1302212   10.1192739
   265    1    1.2787798   19.0483556    3.5116815
   266    2    1.2298028   18.9135781    3.5556846
   267    3    1.7957000   18.2560115    3.6573383
   268    3    0.3792626   18.7878493    3.7097665
   269    1   32.8684826   12.5191350   15.9400337
   270    2   32.8444646   12.4560928   16.0740069
   271    3   32.7304249   11.5922469   16.1350983
   272    3   32.8189171   12.9535526   16.7915364
   273    1    9.0093438    8.4051787   27.1055528
   274    2    9.0527680    8.5186669   27.1935003
   275    3    8.5934043    9.2615100   27.2051656
   276    3    9.7645035    8.4353904   27.6929653
   277    1    4.2319103   28.1910216    8.8563655
   278    2    4.3152625   28.1203770    8.7535951
   279    3    4.6816359   28.5736283    8.1029794
   280    3    4.4333119   27.2565559    8.8069330
   281    1   20.3582533   20.6473815    2.7882581
   282    2   20.3056714   20.5126328    2.7485349
   283    3   20.7222558   20.0441622    2.1402917
   284    3   19.5834928   20.1979758    3.1259162
   285    1   11.8831036   25.3310635   26.8404120
   286    2   11.9611638   25.3297853   26.9684939
   287    3   11.8136020   25.9408064   27.5749967
   288    3   12.5623934   24.7113357   27.1063728
   289    1   11.6609459   25.6270256    7.5038781
   290    2   11.6525024   25.5392256    7.3825526
   291    3   11.0026683   25.6491613    6.8093190
   292    3   12.2532649   24.9190166    7.2506713
   293    1   12.5462796   33.5942285   32.3119645
   294    2   12.4839830   33.6778177   32.4198161
   295    3   11.7348601   33.4237405   32.7902572
   296    3   12.8710528   34.4176965   32.6761830
   297    1   13.6935733   18.0404866   16.8948870
   298    2   13.6860047   18.0554727   16.7458295
   299    3   14.3851144   17.8765237   16.2537016
   300    3   12.9429082   18.3215179   16.3716703
   301    1    3.2761118   19.2269250   14.4246610
   302    2    3.1425379   19.2923474   14.4441010
   303    3    2.4499816   19.0122257   13.9914813
   304    3    3.0587939   19.9526890   15.0097010
   305    1   11.3050769    8.8305173   21.3764914
   306    2   11.2506731    8.6910092   21.3676768
   307    3   11.5994211    8.0555514   21.8550526
   308    3   10.5857434    8.5156782   20.8290721
   309    1   17.8040151   16.9835607   13.6683767
   310    2   17.8565108   16.8850062   13.5682208
   311    3   18.7047706   16.8851904   13.3598408
   312    3   17.3133433   16.3120469   13.1945173
   313    1   17.8020437    2.3398183   19.4069115
   314    2   17.8722037    2.3184474   19.2760648
   315    3   17.5042394    2.5953637   18.5338475
   316    3   18.6479216    1.9173279   19.2578320
   317    1    8.8241814    5.3797985   27.5742207
   318    2    8.8360679    5.4947927   27.4786433
   319    3    9.4154044    5.4608803   26.8258139
   320    3    8.3258132    6.1970245   27.5759992
   321    1   26.9210633    9.4104803    6.2401830
   322    2   26.8801786    9.3419529    6.3671965
   323    3   26.6104763    8.5113981    6.3470405
   324    3   26.9122686    9.7742430    7.1255256
   325    1   11.8345716    7.1244996    4.9940526
   326    2   11.9695113    7.1138751    4.9294121
   327    3   12.6411706    6.7776947    5.3753083
   328    3   12.0820899    7.3883088    4.1078406
   329    1   18.4143552    1.1303932   15.5815193
   330    2   18.3902711    1.0073610   15.4991602
   331    3   18.3937443    0.2208792   15.8791617
   332    3   18.2468269    1.0788087   14.6405062
   333    1   24.9860365   10.7272554   25.1504153
   334    2   25.1042531   10.8036978   25.2021973
   335    3   25.3490492   11.5453726   24.8110961
   336    3   25.5465049   10.5062876   25.8942437
   337    1   25.8800261   12.5687222    6.8999432
   338    2   26.0260266   12.5838191    6.9308612
   339    3   26.2810476   12.7908113    7.7402347
   340    3   26.6195267   12.4645664    6.3011756
   341    1   18.1241329   30.2633668    2.8543919
   342    2   18.0422675   30.3227606    2.7436199
   343    3   18.2851330   30.2081659    1.9124453
   344    3   17.3236192   30.7825384    2.9310142
   345    1   35.1984786   32.1118712    3.4166473
   346    2   35.0668639   32.0471264    3.4480428
   347    3   34.8324900   31.3137079    3.0355708
   348    3   34.5363237   32.4042637    4.0429777
   349    1    8.2646852    6.7558868    8.6090391
   350    2    8.3249376    6.6915142    8.7303890
   351    3    8.4743887    5.8309528    8.7384729
   352    3    8.5256594    7.1779575    9.4275629
   353    1   24.0594737   10.3072334   12.1374666
   354    2   24.1221235   10.1776645   12.1797386
   355    3   23.8579347    9.4274907   11.8186147
   356    3   24.7504182   10.1748148   12.7865378
   357    1   11.6030547   25.1580116   11.2603493
   358    2   11.5754573   25.1531558   11.1129899
   359    3   11.7707463   24.4345764   10.6564017
   360    3   11.2197789   25.8435152   10.7131595
   361    1    9.7889290   27.0030614    5.6143073
   362    2    9.6994390   27.0413472    5.5001769
   363    3    9.4875304   27.8793733    5.3745825
   364    3    9.3912525   26.4258289    4.9624725
   365    1   31.0994979   17.5235192   30.6516410
   366    2   30.9807555   17.4334282   30.6684889
   367    3   30.2034941   17.6725140   30.3496321
   368    3   31.0679140   16.6707546   31.0852622
   369    1   30.8160817    3.1831634   17.1602160
   370    2   30.7715017    3.0432485   17.1296146
   371    3   30.4199158    2.8581013   16.3517491
   372    3   30.8639987    2.4152432   17.7296323
   373    1   29.6322881   25.6110014    5.3026736
   374    2   29.6102022   25.7141992    5.1960789
   375    3   29.5440899   25.4700421    4.3600266
   376    3   29.5479569   26.5581183    5.4126284
   377    1   19.8054308   15.4059433   33.1782048
   378    2   19.7817305   15.2663325   33.1287364
   379    3   19.5691166   14.6342293   33.6928355
   380    3   19.8566042   15.0870506   32.2771382
   381    1   33.7792909    3.5907531   16.9713414
   382    2   33.6988294    3.6223073   16.8487433
   383    3   32.8268122    3.6453946   16.8936869
   384    3   34.1032233    3.7826053   16.0912886
   385    1    2.1384293   16.1070624   15.2339971
   386    2    2.2147789   16.2310778   15.2699266
   387    3    2.8821019   16.1847222   15.8316188
   388    3    1.9911815   16.9981818   14.9170481
   389    1   24.3760699   26.7085937    6.4842917
   390    2   24.2724129   26.6544419    6.3903620
   391    3   24.3307892   25.8311242    6.1045174
   392    3   23.6116062   27.1630423    6.1303087
   393    1   28.5604810    5.5828976   24.0902980
   394    2   28.5830668    5.6564838   24.2190417
   395    3   28.7325700    6.5170133   24.2088089
   396    3   28.5648276    5.2236197   24.9775030
   397    1   16.3030422   14.2853528   13.8298528
   398    2   16.2747721   14.2529142   13.9735488
   399    3   16.8355730   13.7608551   14.4278034
   400    3   15.5496711   14.5564473   14.3544213
   401    1   16.7324280   33.1728345   29.8513541
   402    2   16.8506272   33.0820049   29.8346528
   403    3   17.3999385   32.9543539   30.5016830
   404    3   16.9882622   32.6817762   29.0705578
   405    1   -1.1265752   13.7418490   18.1800485
   406    2   -1.0571022   13.8263440   18.0774127
   407    3   -0.1990209   13.7323922   17.9438594
   408    3   -1.5114230   14.4113615   17.6144714
   409    1    2.0249239    2.0401361   15.5228015
   410    2    1.9714335    2.0419871   15.6629277
   411    3    2.3729732    2.5165596   16.2765349
   412    3    1.2590200    1.5781718   15.8637010
   413    1   31.6047902   16.6582048   19.0190449
   414    2   31.5404282   16.6127902   19.1466970
   415    3   31.9994111   16.6115497   19.8898660
   416    3   30.7073884   16.3500915   19.1454117
   417    1    5.7774663    9.6223752    9.7998932
   418    2    5.7133068    9.5604744    9.6792621
   419    3    5.7218178    8.6929374    9.5779019
   420    3    5.3319161   10.0682591    9.0795427
   421    1   13.3837108    2.0219225    2.8901573
   422    2   13.3604809    1.9345973    2.7704297
   423    3   13.0287992    1.1331120    2.8732667
   424    3   13.5571560    2.2285696    1.9717641
   425    1   22.7305586   11.5392888   27.2358295
   426    2   22.7284447   11.4563945   27.1108333
   427    3   23.1426907   11.7368195   26.3947823
   428    3   22.3019128   10.6942068   27.1004355
   429    1    8.5849163   12.4749006   26.4082827
   430    2    8.4671275   12.5134812   26.3237999
   431    3    7.8202432   11.9418160   26.1907337
   432    3    8.4294515   13.3093676   25.9658714
   433    1    5.4568370   28.9383368   11.4051321
   434    2    5.5031090   29.0007205   11.2768076
   435    3    5.0162203   28.9261078   10.5554622
   436    3    6.2589204   29.4378922   11.2523613
   437    1   29.3983494   16.6046804   15.9062033
   438    2   29.2818862   16.5546346   15.8260051
   439    3   29.4116418   15.9806760   15.1804806
   440    3   28.4752738   16.8377392   16.0054368
   441    1   29.2937305   22.3615432   24.9784606
   442    2   29.3188034   22.4977341   24.9208118
   443    3   29.4451952   22.5908242   24.0615526
   444    3   29.3381298   23.1961535   25.4450296
   445    1   24.5953664   23.5818762   21.3297466
   446    2   24.6261031   23.6965051   21.2380106
   447    3   25.4225821   23.7729381   20.8876593
   448    3   24.0082580   24.2862683   21.0552146
   449    1   18.9136161   32.5725971   16.0153670
   450    2   18.9813407   32.4501471   16.0693983
   451    3   19.4313977   31.9282828   15.5326737
   452    3   18.9248826   32.2603605   16.9201398
   453    1    3.2437724   20.9415670    3.4337596
   454    2    3.0992764   20.9380095    3.4738625
   455    3    2.6333281   20.2079216    3.3605897
   456    3    2.7254477   21.6474228    3.8202041
   457    1   19.6373442   20.5467077   14.9740771
   458    2   19.5720324   20.4131425   14.9542102
   459    3   18.7355514   20.3695017   14.7064964
   460    3   20.0289362   19.6805336   15.0864622
   461    1   22.6606747    5.5472146   28.4336889
   462    2   22.7273802    5.4557678   28.3352620
   463    3   23.3647581    4.9205119   28.6002478
   464    3   22.4776791    5.4595565   27.4982419
   465    1   14.7440809   19.0164889   30.1298640
   466    2   14.8736638   19.0803328   30.0894631
   467    3   14.9270184   19.5195487   29.3363299
   468    3   15.5734147   19.0121623   30.6077960
   469    1   13.1578852   25.4888583   24.4579957
   470    2   13.1891058   25.4907179   24.6046989
   471    3   12.5868813   25.7645275   25.1750679
   472    3   13.9727772   25.2277161   24.8869341
   473    1   21.7731658   27.6891619    8.9445989
   474    2   21.7858376   27.6228910    9.0785675
   475    3   22.4136358   27.8741022    9.6314954
   476    3   21.2316849   26.9865285    9.3042337
   477    1    3.3635411   17.0731739    0.8322023
   478    2    3.3947443   17.0740683    0.6854864
   479    3    4.1676547   17.3698406    0.4060312
   480    3    2.8031789   16.7834948    0.1122630
   481    1    9.9258140   21.9737002   26.5593405
   482    2    9.9147984   21.8845698   26.4391971
   483    3   10.6359734   21.6335530   26.0150932
   484    3    9.1296031   21.6175824   26.1650553
   485    1   22.3913515   12.6625322    8.3657343
   486    2   22.5256013   12.7289919    8.3734857
   487    3   22.7644270   13.3020162    7.7590165
   488    3   23.0670044   12.5422156    9.0330043
   489    1   19.3480656   13.9065166   17.6249173
   490    2   19.3852519   13.9373618   17.4829112
   491    3   19.8933112   13.3852985   17.0356207
   492    3   19.0933108   14.6686907   17.1048953
   493    1   19.0870021   31.9829260   30.9118673
   494    2   19.0600770   31.8968600   31.0317325
   495    3   18.5776719   31.1733520   30.9493406
   496    3   19.3859999   32.1201726   31.8107532
   497    1   32.2816057   32.6604612    2.9339297
   498    2   32.1858866   32.5502073    2.9683089
   499    3   31.9656132   31.9598127    2.3634280
   500    3   31.8498626   32.4998324    3.7729938
   501    1    8.9715716   24.1536064    8.2988294
   502    2    9.1117612   24.1692985    8.2478333
   503    3    9.4478813   23.5722797    7.7060225
   504    3    9.5903909   24.8575161    8.4932668
   505    1    3.9405163   19.9637114   19.7565815
   506    2    3.8363116   19.8564142   19.7452371
   507    3    4.0779298   19.0206449   19.6672804
   508    3    2.9890801   20.0685976   19.7572619
   509    1   19.9323972   34.6114114   18.9609911
   510    2   20.0529636   34.5516023   18.8947595
   511    3   19.9865604   34.2133104   18.0921911
   512    3   20.8200703   34.5422981   19.3124056
   513    1   20.0470881    0.5573377   30.1158068
   514    2   19.9380121    0.4988105   30.0310897
   515    3   19.5008647    1.0069965   29.4710753
   516    3   19.7412352   -0.3495224   30.0987484
   517    1   26.8056014    6.5613917    6.0234774
   518    2   26.7289289    6.5121721    5.9043188
   519    3   27.0059096    6.7035785    5.0983336
   520    3   26.0063455    6.0347134    6.0177825
   521    1   -0.4722467    3.1154713    2.6345436
   522    2   -0.5144011    2.9893204    2.5651970
   523    3    0.0893047    2.4458231    2.2440786
   524    3   -1.3630983    2.7996585    2.4832884
   525    1   10.0417002    7.3250334   30.1228938
   526    2    9.9039556    7.2745937   30.1542351
   527    3    9.4368218    6.8703303   29.5367208
   528    3    9.5705503    7.3857142   30.9538980
   529    1   24.5226430    5.3078447    6.0087397
   530    2   24.4141984    5.2273407    6.0739998
   531    3   23.5886931    5.3043305    5.7990807
   532    3   24.6094493    4.6824809    6.7281959
   533    1   -0.2808034   13.5722095   20.8345079
   534    2   -0.3479965   13.4714394   20.7460180
   535    3   -0.5790465   13.6908545   19.9327285
   536    3   -0.5074575   12.6663715   21.0450256
   537    1   16.4100130   16.3585945   21.0854891
   538    2   16.3311401   16.4479587   20.9944225
   539    3   16.3794111   17.3153050   21.0857854
   540    3   15.8244782   16.0999758   20.3738025
   541    1   28.0444817   11.3730620   22.9268147
   542    2   28.0157577   11.4120104   22.7848360
   543    3   28.5207535   12.0011636   22.3837813
   544    3   27.3438248   11.0492164   22.3607437
   545    1   18.6641693   19.7591349   19.9146753
   546    2   18.5813338   19.6421301   19.8705374
   547    3   18.8765152   18.8289112   19.9909942
   548    3   17.8047320   19.7753446   19.4935612
   549    1    0.0442634    0.8018241   17.3152056
   550    2    0.1030276    0.9214548   17.3840189
   551    3    0.7562488    0.8188246   17.9547518
   552    3   -0.2086701    1.7193504   17.2132129
   553    1    2.0539317   -0.1366599   32.1676174
   554    2    1.9597983   -0.2409221   32.2202321
   555    3    1.2077665   -0.3986570   31.8048589
   556    3    2.1647489   -0.6891339   32.9413902
   557    1   19.6469656   18.0299971   32.1158855
   558    2   19.6941149   17.9377188   32.2243367
   559    3   19.8742015   17.1033473   32.0389719
   560    3   19.7880492   18.2357904   33.0399942
   561    1   31.0056733   35.2775157   14.6468430
   562    2   31.1095372   35.3789286   14.6090577
   563    3   30.8652492   36.1673940   14.3233783
   564    3   31.9574576   35.1798508   14.6751374
   565    1    7.7006317   26.0753207   22.0412406
   566    2    7.5571990   26.0995181   22.0046137
   567    3    7.3210843   26.8606554   21.6470011
   568    3    6.9597160   25.4790100   22.1493597
   569    1   28.9781741   12.0965172   27.9474451
   570    2   28.8686117   12.1497620   27.8599177
   571    3   28.1098682   11.7209275   27.8018130
   572    3   28.9906040   12.8880432   27.4093332
   573    1   14.0444095   -0.9620641   13.5481826
   574    2   14.0519262   -1.1103393   13.5695825
   575    3   13.4681036   -1.5065760   14.0844753
   576    3   14.6794345   -1.5758434   13.1790612
   577    1    1.6657415   13.7325777   17.4138135
   578    2    1.7231345   13.7862519   17.2860437
   579    3    1.9821509   14.6192049   17.2405825
   580    3    1.7976728   13.2652401   16.5889365
   581    1    5.1977202   24.5884874   22.4597398
   582    2    5.1852968   24.5289720   22.5968660
   583    3    5.7375912   23.9020388   22.8516064
   584    3    4.5608003   24.8100161   23.1390706